# data file written by dumpconvert.py
1793 atoms
3 atom types

0.000000 28.920000 xlo xhi
0.000000 28.920000 ylo yhi
0.000000 38.497500 zlo zhi

Atoms

1 2 3.33055240754333e-05 4.787124018921396e-05 0.03108001295281366
65 2 1.807556553688346 1.8075496164463316 0.03091675064570569
129 2 0.00010412320895405491 1.80765481235439 1.8140135948324838
193 2 1.807681839653784 9.567475783570511e-05 1.8140226764601324
2 2 3.6150865133793904 8.296086683280594e-06 0.03088968213506412
130 2 3.6152147867763014 1.807641792822881 1.8138615002804608
66 2 5.422567403439204 1.8075239682303244 0.03066038500499332
194 2 5.4227367083586 9.804169267457355e-05 1.8138500776954314
3 2 7.230086523186278 1.3434563455380768e-05 0.0306660387891295
131 2 7.230188805145145 1.807640639808473 1.8136292660611728
67 2 9.037572617786651 1.807495346288743 0.03045560530401177
195 2 9.037658630410489 7.372005516409056e-05 1.8136669896026791
4 2 10.845051769884162 28.919987011417867 0.030499180009929
132 2 10.845075577083803 1.8076350862997412 1.8134946124952513
5 2 14.459964896568701 2.463282851730678e-06 0.030501584261510985
68 2 12.652507373469687 1.8075058728368747 0.030339395749965678
133 2 14.459914647916747 1.8076319309599065 1.8134912749023921
196 2 12.65249376871468 8.4109412345343e-05 1.8135951309669174
6 2 18.074906342804578 5.447995714812836e-06 0.03064406229867846
69 2 16.267452271439314 1.8075195682815894 0.030445550613340915
134 2 18.074787512907093 1.807663899037627 1.8136312961980006
197 2 16.267346847782168 8.126638785000715e-05 1.8136569763642674
7 2 21.689911143224993 1.3997311561201087e-05 0.03090304683438834
70 2 19.882402847148953 1.80753827595584 0.03068719448022417
135 2 21.689782659356077 1.807674366252158 1.813848774556048
198 2 19.882269630240064 8.28593715019302e-05 1.8138224314081643
8 2 25.304977626865547 4.5509291529779634e-05 0.0310651120929569
71 2 23.497453595666443 1.8075577905516367 0.030923199244128494
136 2 25.304899696951153 1.8076821519947177 1.8140139946468823
199 2 23.49733997436134 0.0001045098915748387 1.8140350841800126
72 2 27.112487201524715 1.8075633262107482 0.031025029958020412
200 2 27.112494797791133 0.00010172580202119713 1.8141225043110971
9 2 2.878120533110402e-05 3.615074867216329 0.030886714670048526
201 2 1.8076492868723886 3.6152176256613635 1.8138620904922034
73 2 1.807544784868544 5.42258796409779 0.030688420019233026
137 2 6.905844006646262e-05 5.422739344142092 1.8138385194235422
10 2 3.615051552141147 3.615071853736333 0.030665495778688143
202 2 5.422728361865995 3.615197308656034 1.813624890905362
138 2 3.615208834318923 5.422727916595956 1.813602680558255
74 2 5.422540641599326 5.422552146230695 0.03037453934076779
11 2 7.230054894380394 3.615044845345094 0.03039446212419962
203 2 9.03763583235894 3.6151796285418016 1.8133746780771323
139 2 7.230172277378919 5.422691734357435 1.8133512533209228
75 2 9.037549102193582 5.422530048346703 0.030117895078200868
12 2 10.845045235031106 3.6149977222750604 0.030200148586747452
13 2 14.459954661637358 3.6150005511399934 0.030197216305211487
204 2 12.652491541247286 3.6151904353599584 1.8132924901101353
140 2 10.845059896521956 5.422690714400643 1.8131715805210418
76 2 12.652490087988898 5.422524571347937 0.029999339337182622
141 2 14.459913497822766 5.422675171919568 1.8131765430903153
14 2 18.07494506975992 3.6150206924495856 0.030391380010608874
205 2 16.26735721807239 3.615188157637448 1.8134039911802438
77 2 16.26743967045697 5.4225281596889285 0.030121120124466855
142 2 18.07482892348745 5.422712267028152 1.813331792137676
15 2 21.68993102456866 3.615044224379918 0.03067160875177075
206 2 19.882289268077535 3.6151822319657105 1.8136286933333983
78 2 19.882447834044914 5.422543689714662 0.03039061593047509
143 2 21.689797647205403 5.422700134125985 1.8135978629409102
16 2 25.304960756092665 3.615088526594248 0.0309071544566521
207 2 23.497352262135237 3.6152231661303 1.8138428478696895
79 2 23.49747370491423 5.422596839216755 0.030661068132820025
144 2 25.304908720536574 5.422728978338045 1.8138313947166875
208 2 27.11250633804608 3.615221503622701 1.8139772838380575
80 2 27.11248762807769 5.422606279750796 0.030797557779094743
17 2 28.919997077333395 7.2300768888583065 0.030661526495675374
209 2 1.8076351406817406 7.230202831424476 1.813620652303156
81 2 1.8074964769071025 9.03757111406022 0.03045585422051821
145 2 6.156673219754725e-05 9.037659861581437 1.8136642738660906
18 2 3.6150311844270866 7.230053615431434 0.030408716308556686
210 2 5.42270470573115 7.230193959947318 1.813342928581663
146 2 3.6151769687667645 9.037663745444064 1.8133831872377946
82 2 5.4225284668037 9.037553442368607 0.030098382929502017
19 2 7.230041503332678 7.230049764415966 0.030090772822829136
211 2 9.037641337073216 7.230163893092884 1.8130860035833452
147 2 7.23019322807892 9.037620414171048 1.8130749075776689
83 2 9.037545581081853 9.03751199965557 0.029819619549035076
20 2 10.845005420820579 7.230020950806619 0.029867099840411273
21 2 14.45998844545672 7.23001417380616 0.029888265913147957
212 2 12.652493710452974 7.2301641693914895 1.8129771408577797
148 2 10.845054107617932 9.037645531829435 1.8128777985886761
84 2 12.652485153210458 9.037513155798163 0.029702147472084325
149 2 14.459913620434524 9.037641384969774 1.812901495568264
22 2 18.07497016655256 7.230037551529118 0.030073832228675344
213 2 16.267363432924213 7.230174264540264 1.8130812070392266
85 2 16.26748240017089 9.037512012283404 0.029818318220171953
150 2 18.074825096390487 9.037640702725595 1.813080976152014
23 2 21.689979168166047 7.230074126963962 0.030389881189668212
214 2 19.882311758999034 7.230196991808167 1.8133351499774515
86 2 19.882485752196736 9.037527234222011 0.030110167969994096
151 2 21.689831776948555 9.03763651362502 1.8133798718067051
24 2 25.304999640310893 7.230084662730823 0.030632101664857934
215 2 23.49735138404114 7.230217337546478 1.8136364919112427
87 2 23.49748129145104 9.037553051203634 0.030452453657121917
152 2 25.304911927496196 9.037647567416116 1.8136692793729867
216 2 27.1124933915655 7.230218151594976 1.8137540878740719
88 2 27.11250200698554 9.037557504115425 0.030598859283200944
25 2 1.6624212261718133e-05 10.845030550256347 0.030476218343351423
217 2 1.8076468325928936 10.84509446985375 1.813485786319911
33 2 28.91999628029919 14.459950133027569 0.030486520757362676
89 2 1.8074865185234454 12.652490207976706 0.030341544722225104
153 2 6.452767393201036e-05 12.652500840905152 1.813584797751443
225 2 1.8076322156888602 14.459902777653157 1.8134935959956222
26 2 3.6150115477753877 10.845015983210587 0.030196587487614453
218 2 5.422682996110493 10.84509000370023 1.8131600481716543
34 2 3.615000022300215 14.459964987674612 0.030215413369666544
154 2 3.6151847916177413 12.652511528581314 1.813319627422275
90 2 5.422521205725207 12.65250977733026 0.030021502895805414
226 2 5.4227020058667 14.459911568332345 1.813174405542473
27 2 7.230022341057862 10.84503340876172 0.029871636132105982
219 2 9.037647914647502 10.84507316992587 1.8128679561478134
35 2 7.230012173792045 14.459976856828971 0.029870524224474712
155 2 7.2301857180164655 12.65250434480215 1.812974366770114
91 2 9.037541437770258 12.652486135701373 0.029704469068641732
227 2 9.037628156976405 14.459914320830183 1.812887898377353
28 2 10.845021169115833 10.845016517061529 0.029666976730792962
29 2 14.45998922239073 10.84502656650701 0.029659908897099584
220 2 12.652513651143442 10.845058274178086 1.8127972837246327
36 2 10.845021271204965 14.459992978135146 0.029660717810544673
156 2 10.845083306321113 12.652487525237065 1.8127799075835658
37 2 14.4599974261032 14.460001317196662 0.029663599139112175
92 2 12.652502928547353 12.65249972038597 0.029604677190195664
157 2 14.459925978332334 12.652499381590651 1.81278364115887
228 2 12.652483151035447 14.459936196803424 1.8127710545368902
30 2 18.07495559407098 10.84500645834651 0.029864462003168436
221 2 16.267353295816346 10.845056219084128 1.812869664905444
38 2 18.074988862123515 14.459989636666467 0.029878199498176744
93 2 16.2674756147202 12.652512266371062 0.029707343782818977
158 2 18.07481082505942 12.652512899027052 1.8129633629646278
229 2 16.267368756208256 14.4599172204089 1.8128989969661182
31 2 21.69000135595134 10.845030476390473 0.030208446246720873
222 2 19.882311789759214 10.845085469610385 1.8131528689529093
39 2 21.689996456761904 14.459987701603072 0.030199094140390816
94 2 19.88246340286854 12.652507440598962 0.030003355400417018
159 2 21.689833412677775 12.652484534950837 1.813297925737435
230 2 19.88232763319644 14.45993270712921 1.8131634895271063
32 2 25.304991546428596 10.84502252769478 0.030489906033995973
223 2 23.497370891329975 10.84507139925194 1.8134865443346486
40 2 25.30499326296936 14.459975610192634 0.030503120426977465
95 2 23.497484829196402 12.65251338799602 0.030364698671538896
160 2 25.30493016202857 12.652507630020715 1.8135893025383507
231 2 23.497371175276363 14.459910087582138 1.8134963776099249
224 2 27.11248411109157 10.845068889890772 1.813626472837219
96 2 27.11248359010939 12.65248254465286 0.03049678141969906
232 2 27.112492032968323 14.459900828347187 1.8136388776685954
41 2 28.919997348236418 18.074910220249137 0.030648855845891176
97 2 1.8075116203402501 16.267433715155473 0.030444959559771098
161 2 6.333994494272789e-05 16.26735849073105 1.8136686574959768
233 2 1.8076514814448374 18.07479019735483 1.8136394832844254
42 2 3.615047180786074 18.074931694845535 0.030410884615307388
162 2 3.615185663767549 16.267338315838 1.8133808499005157
98 2 5.422535724168469 16.267441029670874 0.030105594799236315
234 2 5.42269064963504 18.07481958035452 1.8133372857822454
43 2 7.230045370125197 18.074966718155277 0.03008764083860181
163 2 7.230178159483518 16.26737960308905 1.8130859628880236
99 2 9.037539038527056 16.267463790505413 0.029831757736917708
235 2 9.037629058983452 18.07483784189417 1.8130815629570587
44 2 10.845035313947264 18.074959566711062 0.029861473322100915
164 2 10.845076637250106 16.26736713112679 1.8128940083689769
45 2 14.459964354362018 18.074960472276054 0.029884557906707188
100 2 12.652490582888499 16.267468749710545 0.029730256972934712
165 2 14.459934052289396 16.267374904602917 1.812893511335747
236 2 12.652494685573604 18.074838691655657 1.812989118109316
46 2 18.074947152252104 18.07497356365363 0.030078852565391122
101 2 16.26746467964408 16.26747296610584 0.02983646859418658
166 2 18.074840230074077 16.26735997117617 1.8130833043574612
237 2 16.267355446619717 18.074840190627455 1.8130878904479852
47 2 21.689952205744856 18.07494958958104 0.030400250342593683
102 2 19.882473966770274 16.26745521961163 0.0301102224924362
167 2 21.689822806831454 16.267337228290042 1.8133954699604689
238 2 19.882314333304517 18.07480929082195 1.8133308312149101
48 2 25.304988171669503 18.07492004568403 0.03064933661488771
103 2 23.49749157576677 16.267426528409068 0.03044831222770972
168 2 25.304920121794595 16.26735780749195 1.8136452994665793
239 2 23.497368338856614 18.07480410659007 1.8136241162670468
104 2 27.112515623100357 16.26743259168338 0.030572964198004243
240 2 27.112486233768596 18.07478767891346 1.8137677248200155
49 2 2.4168018912098212e-05 21.68992875340914 0.030898348094554728
105 2 1.8075155326733165 19.882421077878522 0.030656548086135372
169 2 9.168285749702122e-05 19.88225325817216 1.8138459464535266
241 2 1.8076648511751985 21.689800929117887 1.813864624871481
50 2 3.61506717870689 21.689938182962678 0.030680133463759293
170 2 3.615192785594594 19.88229761149594 1.8136023760092328
106 2 5.42254698425109 19.882455088595044 0.030363233852308838
242 2 5.422708076986086 21.68978998324133 1.8136208947775616
51 2 7.230072071821683 21.689980302500608 0.03039299069777242
171 2 7.230180915150609 19.882296581549376 1.8133255088599871
107 2 9.037559936321216 19.88248262119747 0.030110371372138952
243 2 9.037663839742814 21.689827861047938 1.8134068591362447
52 2 10.845024259391602 21.68998375987546 0.030227602244675043
172 2 10.845089414692294 19.882304220738966 1.8131543245627817
53 2 14.459960420194996 21.68998992217995 0.030196216069850162
108 2 12.652514451987217 19.88247476969539 0.030015845781866137
173 2 14.459916617348716 19.8823018281822 1.8131588367736018
244 2 12.652483955568883 21.689827055280716 1.8133196197457742
54 2 18.07494902112919 21.689958009939193 0.030408901708872723
109 2 16.267445734810465 19.882462849900044 0.030113988599409627
174 2 18.07479946321427 19.88229522365046 1.813351805362527
245 2 16.267347466688484 21.689822398608474 1.8133851391402769
55 2 21.68993115473969 21.689942708767042 0.030690416888109185
110 2 19.882453806926677 19.88246008250518 0.030375676136678208
175 2 21.689788947503946 19.8822890493333 1.8136223288431388
246 2 19.88229934296913 21.689819513978744 1.8136118586889804
56 2 25.304975827402394 21.689903509572744 0.030888450707181932
111 2 23.497453048472913 19.882405135875032 0.03067316601081296
176 2 25.304914543910044 19.882270982542472 1.8138191496466898
247 2 23.497323343475035 21.689775812827115 1.8138630128144893
112 2 27.112497831210057 19.882401544839237 0.03081842005752868
248 2 27.112491492907782 21.689767057634832 1.8139566752324743
57 2 4.511008432020839e-05 25.304969196701336 0.031088617708895785
113 2 1.8075406776977954 23.497428838906675 0.03091851949494744
177 2 8.029211211441077e-05 23.497315468625807 1.8140151763114785
249 2 1.8076763485596798 25.304910420076073 1.8140387298420657
58 2 3.615091175196032 25.304981125846297 0.03088602133583434
178 2 3.61522210025572 23.497350666113135 1.8138426461604256
114 2 5.422575737117587 23.497480400132734 0.030681345776980323
250 2 5.422723252133241 25.304907732795815 1.8138164070158005
59 2 7.230093159367091 25.304991100275906 0.030652050519811177
179 2 7.230192660569896 23.497336870534014 1.8136484590587754
115 2 9.037565468170015 23.49749621989051 0.03043083005999078
251 2 9.037659070289905 25.304910923535598 1.8136382273139258
60 2 10.845021519309567 25.304996292899098 0.030490963875515514
180 2 10.845074536666386 23.497349290555576 1.8134811336845236
61 2 14.459954136129879 25.30501605649753 0.030500308003806587
116 2 12.65248223120033 23.497489014152237 0.030339270758014254
181 2 14.45991369280061 23.497356211087094 1.813487792827373
252 2 12.652515376113259 25.304937251427408 1.8135860410694784
62 2 18.074918459558297 25.30498929620234 0.03065329941500284
117 2 16.2674587822331 23.497487055671215 0.030439454489160633
182 2 18.074792325137178 23.497354671474643 1.8136273549727033
253 2 16.267338863522383 25.30490927069113 1.8136543241925294
63 2 21.689929823714948 25.304960128391205 0.030887966978321416
118 2 19.882424621999775 23.497477904227605 0.03065718122686675
183 2 21.689796471930737 23.497353553884157 1.8138688300442471
254 2 19.88227340521761 25.304905048704875 1.8138324652267634
64 2 25.304957045018572 25.304955368688084 0.03108108992780828
119 2 23.4974341726311 23.49743436040226 0.03093628740447372
184 2 25.304893277234118 23.49732283644683 1.814030030683628
255 2 23.497337832170803 25.304901578145554 1.8140188574685112
120 2 27.112487734379755 23.49742256761058 0.03102287160265514
256 2 27.112485090757435 25.304914843726134 1.814091888611892
121 2 1.8075658253122338 27.112497575145596 0.03102969051679467
185 2 8.384333382519418e-05 27.112516419716986 1.814114017637202
186 2 3.6152309540556 27.112509435735355 1.8139643052540322
122 2 5.422576361315929 27.11249767745798 0.030812570952066458
187 2 7.2301950321456365 27.112516948711743 1.8137691481948734
123 2 9.037572808850397 27.112494472161735 0.03057205711307857
188 2 10.845094014637649 27.112487809703335 1.81364687575639
124 2 12.652489948052624 27.1125006081872 0.03051157303693798
189 2 14.459916367357778 27.112506726978236 1.8136322989297984
125 2 16.26743081146905 27.112494072569323 0.030582536206243436
190 2 18.07478705791394 27.11248726365971 1.813782657121005
126 2 19.882399543141343 27.112502250145646 0.030792261842643047
191 2 21.689770785316032 27.112505146647752 1.8139820783913627
127 2 23.497430958718546 27.112512186553825 0.03103559736965948
192 2 25.304917654862532 27.112501940530834 1.8141238140211515
128 2 27.112488294621862 27.112506851258292 0.03114884328123843
257 1 0.00016544581108629913 28.92003886417043 3.6154537937754068
321 1 1.8077476210530168 1.8077106848344442 3.6153539868070683
385 1 0.0002486984347995087 1.8077485712591879 5.422793582487179
449 1 1.8078333475147763 28.91996318284118 5.422795155636238
258 1 3.615298713129813 28.920029086653322 3.61534982713381
386 1 3.615355901393728 1.807742306768892 5.422726894202678
322 1 5.422793761848175 1.8077081094836953 3.615217111152523
450 1 5.422859909952454 28.919947164214662 5.422726706326135
259 1 7.230268424824253 28.920032094948365 3.6152198634689534
387 1 7.230275171527117 1.807725638243704 5.422673844301193
323 1 9.037676228237698 1.8076947809014858 3.6150775207712433
451 1 9.037704572880761 28.91994561309082 5.422692075914116
260 1 10.84508905103453 28.920027996340664 3.6151390469091416
388 1 10.845059601139925 1.8077058760647813 5.422646653668462
261 1 14.459868206931839 28.920028714711147 3.6151419195722165
324 1 12.652471861161843 1.8076832828184204 3.615036752772238
389 1 14.459829767716025 1.8076738424776808 5.4226648424903505
452 1 12.652450102090793 28.91994299753076 5.422700752292941
262 1 18.07472179659399 28.920022704699356 3.6152227243771677
325 1 16.267283135334832 1.8076640937016804 3.6150944865320223
390 1 18.074694648266696 1.8076506221126416 5.422693798151014
453 1 16.267230456500826 28.919918606456758 5.422727254553392
263 1 21.68974261776951 28.92002554878716 3.615352719438641
326 1 19.882216347383583 1.807658033788027 3.615221519083638
391 1 21.689750653657082 1.8076647443396805 5.422734709986087
454 1 19.88217105893073 28.919901039755114 5.422756636563043
264 1 25.304928825637884 28.920037030518476 3.6154606363433786
327 1 23.497330206153098 1.807689350430283 3.615360563062301
392 1 25.30498598754063 1.8077166116570447 5.422789495194407
455 1 23.49732556644101 28.919924467448684 5.422796292003055
328 1 27.11255669043651 1.807706172016209 3.6154232585711785
456 1 27.112612146495415 28.919958318299663 5.422824037363349
265 1 0.00017026832674412647 3.615341511241069 3.6153443486110826
457 1 1.8078355258136751 3.615482037966319 5.422747965722006
329 1 1.8077576745342565 5.422925160493079 3.615208433473967
393 1 0.00027184549819843693 5.42312540817527 5.422777105325254
266 1 3.6152894669541147 3.6153436935599697 3.615198905632727
458 1 5.422832780447916 3.6154562657358027 5.4226711354677075
394 1 3.615377757445679 5.423118038255685 5.422701499138473
330 1 5.422783746460835 5.422893842347639 3.6150161637738445
267 1 7.230248643589073 3.615310341959488 3.6150336717361506
459 1 9.0376629411655 3.615399385763642 5.42260455799505
395 1 7.230270365808923 5.423034485208153 5.422582213319126
331 1 9.037663806284598 5.422831932296483 3.614830966170969
268 1 10.84507008744104 3.6152803968055687 3.6149146381275115
269 1 14.459866162911968 3.6152547366911687 3.614923051614906
460 1 12.652431809176063 3.6153477558412996 5.422582406580914
396 1 10.845046416904811 5.422931360899415 5.422506683798014
332 1 12.652461846120602 5.422792647064464 3.6147620558510694
397 1 14.459829189262207 5.4228752578082355 5.4224942795660835
270 1 18.07473739072348 3.615262072340434 3.6150348631217892
461 1 16.267251836797602 3.6153208727672053 5.422599097112152
333 1 16.267290677445246 5.422788962367687 3.6148223140696567
398 1 18.074702695663063 5.422902848548035 5.422535672177296
271 1 21.6897657642788 3.6152829195099914 3.6152054312776505
462 1 19.882208466355046 3.6153398170834024 5.4226462154464645
334 1 19.882229423073568 5.4228180543908655 3.6149926807904422
399 1 21.689754980373216 5.422985035896155 5.4226255455885575
272 1 25.304945305118423 3.615320805055641 3.6153442029302307
463 1 23.497365410864568 3.615403307699865 5.422725199451932
335 1 23.497338648963304 5.422865884907359 3.61519244035138
400 1 25.305000579195188 5.423073542384027 5.4227403976992115
464 1 27.11263916851102 3.6154646209446186 5.422784057055523
336 1 27.11256752109144 5.4229116304073495 3.6152984283434213
273 1 0.00018460588082175715 7.23042714396995 3.6152173701489096
465 1 1.807877649272968 7.230676842352652 5.422761464897584
337 1 1.8077699883892377 9.03786953524686 3.6150814660306545
401 1 0.00030585526495035344 9.03811547843151 5.422810468014783
274 1 3.615295364362877 7.230419662035224 3.6150251763087544
466 1 5.422875635001005 7.2306118001774555 5.422604304365059
402 1 3.615437815707651 9.038091676230767 5.422686768884752
338 1 5.422804150909432 9.037831567907379 3.6148197359417913
275 1 7.230250516392714 7.230353895238243 3.614796874055919
467 1 9.037691781887377 7.230467119374996 5.422462184236752
403 1 7.230347073569801 9.03796706108428 5.422471795418809
339 1 9.037687638108546 9.037751142895614 3.6145971525511196
276 1 10.845074384050571 7.230287857787047 3.6146428381890354
277 1 14.459862927203073 7.230252388533336 3.6146359345819397
468 1 12.652436192967588 7.230344390399204 5.422407836101599
404 1 10.845095574340382 9.037793849058078 5.42235115103815
340 1 12.652465030730498 9.037680933388042 3.6145136848518367
405 1 14.45980342470206 9.037713840610548 5.422331972133637
278 1 18.074730643685253 7.230283534798707 3.61477188930478
469 1 16.267227021266212 7.230343515956909 5.422423533323064
341 1 16.26726782955832 9.037689665457988 3.614583913316396
406 1 18.07462402211557 9.037799249076997 5.422388188018914
279 1 21.689756471083 7.230334668161844 3.6149952250508837
470 1 19.882171365970372 7.230446349293138 5.422501208067759
342 1 19.88220331566567 9.037752526307129 3.6147821557040674
407 1 21.68968702503924 9.037942594183505 5.422518995595565
280 1 25.304956411920475 7.2303888962460965 3.615198468006662
471 1 23.497344640022998 7.230563559854262 5.42264424850605
343 1 23.49733229149291 9.037811810551373 3.6150485156111807
408 1 25.30498682740544 9.038055423291613 5.422705876568081
472 1 27.112653662930214 7.230649285237352 5.422777203851224
344 1 27.112584195389807 9.037855205821318 3.6151883084318364
281 1 0.00020046365209871122 10.845259240152673 3.615131581415018
473 1 1.807918634634062 10.845463568091283 5.422797357007709
289 1 0.00020600568862897247 14.459949686088564 3.6151498525746257
345 1 1.807781639612701 12.652611009855308 3.6150506798250674
409 1 0.00032201255237220244 12.652747466883685 5.422867003969403
481 1 1.8079453869652067 14.459980669254486 5.422872245165678
282 1 3.615314927700415 10.845246919498985 3.614926424561915
474 1 5.422964596300606 10.845391837800735 5.422561494434926
290 1 3.615330276099508 14.459942810096917 3.61493883296306
410 1 3.6154959734325898 12.652725356661694 5.422717190692148
346 1 5.422832802838699 12.652580625818013 3.6147631825053383
482 1 5.423032591060264 14.459948210906322 5.422601994142743
283 1 7.230281844345869 10.845183596021817 3.6146239216804408
475 1 9.037787176105493 10.845235894908145 5.422348231822053
291 1 7.23030612408236 14.45991640608726 3.614633684192543
411 1 7.23045079272505 12.652630550946064 5.4224305910428825
347 1 9.037722424373827 12.652518676804299 3.6144991217003484
483 1 9.037869388803461 14.459872834723676 5.422346551691089
284 1 10.8451010156543 10.845109717415259 3.6144635763479793
285 1 14.459858408702555 10.845079353668352 3.614464793751506
476 1 12.652460096590193 10.845093392489726 5.422272948920315
292 1 10.84511963456775 14.45987248184863 3.6144431685349367
412 1 10.845171859861981 12.652494953710846 5.422269714301441
293 1 14.4598466975743 14.459854333898498 3.6144335204329905
348 1 12.652485001914789 12.652475733249894 3.6144050274020736
413 1 14.45977580085362 12.652428062597146 5.422254460644213
484 1 12.652487304759196 14.4597956729445 5.422256347995277
286 1 18.074684780693914 10.845119089099066 3.6145969422138355
477 1 16.26714821450443 10.845098409906237 5.422307484967817
294 1 18.074662902495024 14.459868245096802 3.614591149967622
349 1 16.2672395348996 12.652467087523288 3.614483386026286
414 1 18.07451222421422 12.652494611329729 5.422326701803058
485 1 16.267090617468718 14.459790053426143 5.422285531483434
287 1 21.68972633101939 10.845176755267365 3.614856746873018
478 1 19.882058031208526 10.845235625477788 5.4224028081971305
295 1 21.689701477615515 14.459900532467433 3.6148531774609682
350 1 19.882155193757296 12.652521246729727 3.6146928405375616
415 1 21.68959055645585 12.652621049021535 5.42247055423655
486 1 19.88196930488018 14.459865725433113 5.422396070160535
288 1 25.304961387506168 10.845231634479623 3.6151008050434794
479 1 23.497287753667287 10.845369972408907 5.422587852759554
296 1 25.304954464715163 14.459941929978616 3.6151001689585027
351 1 23.497319629787945 12.652568248262474 3.6149764574448384
416 1 25.30496036002495 12.652715216828206 5.422706813491033
487 1 23.49722744340358 14.459950389371517 5.4225929208309545
480 1 27.11266373053504 10.845448280300795 5.422797245248104
352 1 27.112595856130362 12.652600360849526 3.6151429397296484
488 1 27.112647709416883 14.45998516730019 5.422848478126412
297 1 0.00020319344198321528 18.074646398456807 3.615268343823796
353 1 1.8077936311639535 16.267281198535905 3.615117714908954
417 1 0.00031375366231069083 16.26721195776923 5.422948413576778
489 1 1.8079551174082809 18.074453977814102 5.422962117090244
298 1 3.615339296204423 18.07464534559171 3.6150665118833003
418 1 3.615533796185451 16.267199795133628 5.422811142221773
354 1 5.422839362037179 16.267283297563157 3.6148341028309825
490 1 5.423055116218658 18.07445589678771 5.422741688632329
299 1 7.23030538691571 18.07466302945829 3.6147895343271186
419 1 7.230499648094937 16.26718667240127 5.422516557396008
355 1 9.037734034067762 16.26727276741522 3.6145723057728003
491 1 9.037880420406209 18.074475751674264 5.422500248004461
300 1 10.84511930191426 18.074665585988864 3.614603562645956
420 1 10.845208506613373 16.26715679291372 5.422335518483708
301 1 14.459851813459629 18.074664274468308 3.6145917488284223
356 1 12.652490583596217 16.267255900519807 3.6144746916173727
421 1 14.459778803621175 16.26713439187469 5.422305859177288
492 1 12.652497859004175 18.07448714205253 5.4223955570170865
302 1 18.074663015671145 18.074659821180923 3.614727445334285
357 1 16.267236742694866 16.267251852588878 3.6145467943330902
422 1 18.0744753666618 16.267151582813838 5.422371380185897
493 1 16.267105888150592 18.074490731846048 5.4224019917419
303 1 21.689695748610216 18.074661898290035 3.6149621664790677
358 1 19.882145062245844 16.267265119818422 3.614765101083685
423 1 21.689541841491657 16.267199211271876 5.422512626260165
494 1 19.881968625352975 18.074500729094073 5.42248854957015
304 1 25.30493545573908 18.074663158070376 3.615199110365003
359 1 23.497303621854808 16.26728423919258 3.615024270298502
424 1 25.30491247557624 16.26722769671216 5.422761656754275
495 1 23.497192505699367 18.074508739109238 5.422673759480156
360 1 27.112584074438143 16.26728716520154 3.6152010121784177
496 1 27.112600390852663 18.07448456093407 5.422919388932755
305 1 0.00018446790090963556 21.68952215748288 3.615394645042378
361 1 1.8077970408286208 19.88204930899287 3.6152766543764074
425 1 0.00028141052653166685 19.88179295809293 5.42298704715716
497 1 1.8079206940164676 21.68920529524653 5.422970971151615
306 1 3.6153409207680913 21.68952178936851 3.615265584274305
426 1 3.6155367359330426 19.881768483560073 5.422921980707931
362 1 5.422842409756217 19.88205748162196 3.6150413419115095
498 1 5.423030438385694 21.689187831011203 5.422868896151432
307 1 7.230303110798708 21.68952576684204 3.6150426110659284
427 1 7.2304902472881025 19.881787657038537 5.422709355776267
363 1 9.037727999043408 19.882082086866752 3.614801768592698
499 1 9.037840233487055 21.689211843400503 5.422707016385911
308 1 10.845109749384392 21.689556550224417 3.614889267061263
428 1 10.84519235328093 19.88182755683036 5.4225446938336646
309 1 14.45985315793913 21.68957676008673 3.6148585347745037
364 1 12.652485698628098 19.882096999307947 3.6147093372958543
429 1 14.459794287363119 19.881857888783983 5.42249160755401
500 1 12.652486250307591 21.689255165233813 5.42260594320939
310 1 18.07468100182902 21.68958749463303 3.6149686279649593
365 1 16.267237473309553 19.882107147792052 3.61476706976016
430 1 18.07451883561566 19.881865894437503 5.422519088124707
501 1 16.26715065204857 21.689288507205216 5.4225908688660205
311 1 21.689702376334974 21.689577649343807 3.6151736637631644
366 1 19.88214905213364 19.882098587891164 3.6149454522321323
431 1 21.689556959467325 19.881859480365428 5.422630752605957
502 1 19.88203000916875 21.689295779734355 5.4226437019860905
312 1 25.304916895712186 21.689544943187435 3.615347756396021
367 1 23.49729452522074 19.882083294673997 3.6151746916971734
432 1 25.304873032010285 19.881831752431793 5.422844719085439
503 1 23.497200233437866 21.689269096145036 5.422787522403435
368 1 27.11256603507718 19.88206061789176 3.6153285094625023
504 1 27.11256870606792 21.68923671219045 5.422934001014824
313 1 0.00016218956723956823 25.30468211174795 3.61546261728649
369 1 1.8077768236492409 23.497064063382428 3.6154036303709907
433 1 0.00024837855778072195 23.49676695831293 5.422934562604169
505 1 1.8078680913855099 25.304420751642667 5.422881956467171
314 1 3.6153268091879514 25.304673167538372 3.6153724557834717
434 1 3.615480936122385 23.496743155590703 5.422912463934284
370 1 5.422837638114684 23.497058024471386 3.615246596626892
506 1 5.422948874755691 25.304395556041243 5.422829886260183
315 1 7.230286965554773 25.304673618562887 3.6152135943461445
435 1 7.230430994753609 23.496725362838717 5.422811612407522
371 1 9.037714574417723 23.4970796363619 3.615077558546656
507 1 9.03777260281682 25.304381863942837 5.422756470195107
316 1 10.845101616163893 25.304689302548056 3.61511723335331
436 1 10.845150492110951 23.496745095239376 5.422711210635634
317 1 14.459863200200079 25.30471686055319 3.615112552138711
372 1 12.652477574047861 23.497107523354675 3.6149954962821584